<?xml version="1.0" encoding="UTF-8"?>

<!-- generated on 03/15/22 09:06:37 by Eclipse SUMO GUI Version 1.5.0
<configuration xmlns:xsi="http://www.w3.org/2001/XMLSchema-instance" xsi:noNamespaceSchemaLocation="http://sumo.dlr.de/xsd/sumoConfiguration.xsd">

    <input>
        <net-file value="2022-03-10-11-17-40\osm.net.xml"/>
        <route-files value="2022-03-10-11-17-40\osm.passenger.trips.xml,2022-03-10-11-17-40\osm.bicycle.trips.xml"/>
        <additional-files value="2022-03-10-11-17-40\osm.poly.xml"/>
    </input>

    <output>
        <tripinfo-output value="2022-03-10-11-17-40\sumo_tripinfo.out"/>
    </output>

    <processing>
        <ignore-route-errors value="true"/>
    </processing>

    <routing>
        <device.rerouting.adaptation-steps value="18"/>
        <device.rerouting.adaptation-interval value="10"/>
    </routing>

    <report>
        <verbose value="true"/>
        <duration-log.statistics value="true"/>
        <no-step-log value="true"/>
    </report>

    <traci_server>
        <remote-port value="64279"/>
    </traci_server>

    <gui_only>
        <gui-settings-file value="2022-03-10-11-17-40\osm.view.xml"/>
    </gui_only>

</configuration>
-->

<tripinfos xmlns:xsi="http://www.w3.org/2001/XMLSchema-instance" xsi:noNamespaceSchemaLocation="http://sumo.dlr.de/xsd/tripinfo_file.xsd">
    <tripinfo id="veh13" depart="59.00" departLane="4769351#6_0" departPos="5.10" departSpeed="0.00" departDelay="-0.87" arrival="116.00" arrivalLane="4326325#0_1" arrivalPos="0.20" arrivalSpeed="5.85" duration="57.00" routeLength="508.00" waitingTime="0.00" waitingCount="0" stopTime="0.00" timeLoss="18.61" rerouteNo="1" devices="tripinfo_veh13 routing_veh13" vType="veh_passenger" speedFactor="0.99" vaporized=""/>
    <tripinfo id="veh0" depart="0.00" departLane="38300057#0_0" departPos="5.10" departSpeed="0.00" departDelay="0.00" arrival="119.00" arrivalLane="-150387776_0" arrivalPos="16.47" arrivalSpeed="17.28" duration="119.00" routeLength="801.53" waitingTime="43.00" waitingCount="2" stopTime="0.00" timeLoss="67.27" rerouteNo="1" devices="tripinfo_veh0 routing_veh0" vType="veh_passenger" speedFactor="1.06" vaporized=""/>
    <tripinfo id="bike17" depart="116.00" departLane="-852529749#1_0" departPos="1.70" departSpeed="0.00" departDelay="-0.77" arrival="149.00" arrivalLane="29719964#1_0" arrivalPos="9.98" arrivalSpeed="5.26" duration="33.00" routeLength="155.57" waitingTime="0.00" waitingCount="0" stopTime="0.00" timeLoss="3.50" rerouteNo="1" devices="tripinfo_bike17 routing_bike17" vType="bike_bicycle" speedFactor="1.14" vaporized=""/>
    <tripinfo id="veh12" depart="55.00" departLane="534916585#1_0" departPos="5.10" departSpeed="0.00" departDelay="-0.27" arrival="173.00" arrivalLane="38128444#3_0" arrivalPos="34.42" arrivalSpeed="15.12" duration="118.00" routeLength="1442.93" waitingTime="4.00" waitingCount="1" stopTime="0.00" timeLoss="27.99" rerouteNo="1" devices="tripinfo_veh12 routing_veh12" vType="veh_passenger" speedFactor="1.12" vaporized=""/>
    <tripinfo id="bike8" depart="55.00" departLane="-38508056#1_0" departPos="1.70" departSpeed="0.00" departDelay="0.05" arrival="176.00" arrivalLane="38128384#4_0" arrivalPos="13.93" arrivalSpeed="5.32" duration="121.00" routeLength="612.50" waitingTime="0.00" waitingCount="0" stopTime="0.00" timeLoss="9.82" rerouteNo="1" devices="tripinfo_bike8 routing_bike8" vType="bike_bicycle" speedFactor="0.85" vaporized=""/>
    <tripinfo id="veh9" depart="41.00" departLane="-90200380#7_0" departPos="5.10" departSpeed="0.00" departDelay="-0.45" arrival="189.00" arrivalLane="-38128426#3_0" arrivalPos="45.14" arrivalSpeed="9.22" duration="148.00" routeLength="1776.57" waitingTime="0.00" waitingCount="0" stopTime="0.00" timeLoss="38.38" rerouteNo="1" devices="tripinfo_veh9 routing_veh9" vType="veh_passenger" speedFactor="1.09" vaporized=""/>
    <tripinfo id="veh2" depart="9.00" departLane="40916616#0_0" departPos="5.10" departSpeed="0.00" departDelay="-0.21" arrival="210.00" arrivalLane="384467498#2_0" arrivalPos="10.54" arrivalSpeed="13.26" duration="201.00" routeLength="1365.60" waitingTime="87.00" waitingCount="2" stopTime="0.00" timeLoss="119.27" rerouteNo="1" devices="tripinfo_veh2 routing_veh2" vType="veh_passenger" speedFactor="1.03" vaporized=""/>
    <tripinfo id="veh1" depart="4.00" departLane="-57400731#0_0" departPos="5.10" departSpeed="0.00" departDelay="-0.61" arrival="214.00" arrivalLane="-38508047#2_0" arrivalPos="0.74" arrivalSpeed="9.38" duration="210.00" routeLength="1757.74" waitingTime="40.00" waitingCount="1" stopTime="0.00" timeLoss="72.49" rerouteNo="1" devices="tripinfo_veh1 routing_veh1" vType="veh_passenger" speedFactor="0.94" vaporized=""/>
    <tripinfo id="veh29" depart="133.00" departLane="38128401#1_0" departPos="5.10" departSpeed="0.00" departDelay="-0.56" arrival="215.00" arrivalLane="384467499#0_0" arrivalPos="3.81" arrivalSpeed="14.05" duration="82.00" routeLength="626.43" waitingTime="21.00" waitingCount="1" stopTime="0.00" timeLoss="43.48" rerouteNo="1" devices="tripinfo_veh29 routing_veh29" vType="veh_passenger" speedFactor="1.13" vaporized=""/>
    <tripinfo id="veh5" depart="23.00" departLane="384392306#2_0" departPos="4.29" departSpeed="0.00" departDelay="-0.03" arrival="222.00" arrivalLane="38128396_0" arrivalPos="338.01" arrivalSpeed="8.54" duration="199.00" routeLength="1458.42" waitingTime="63.00" waitingCount="2" stopTime="0.00" timeLoss="90.63" rerouteNo="1" devices="tripinfo_veh5 routing_veh5" vType="veh_passenger" speedFactor="1.05" vaporized=""/>
    <tripinfo id="veh6" depart="27.00" departLane="-38508032_0" departPos="5.10" departSpeed="0.00" departDelay="-0.63" arrival="222.00" arrivalLane="38128431#2_0" arrivalPos="57.09" arrivalSpeed="11.73" duration="195.00" routeLength="1752.36" waitingTime="0.00" waitingCount="0" stopTime="0.00" timeLoss="41.52" rerouteNo="1" devices="tripinfo_veh6 routing_veh6" vType="veh_passenger" speedFactor="0.89" vaporized=""/>
    <tripinfo id="bike1" depart="6.00" departLane="-444110764#1_0" departPos="1.70" departSpeed="0.00" departDelay="-0.87" arrival="226.00" arrivalLane="-40916610#1_0" arrivalPos="50.67" arrivalSpeed="4.99" duration="220.00" routeLength="1044.79" waitingTime="9.00" waitingCount="2" stopTime="0.00" timeLoss="31.18" rerouteNo="1" devices="tripinfo_bike1 routing_bike1" vType="bike_bicycle" speedFactor="1.08" vaporized=""/>
    <tripinfo id="veh17" depart="78.00" departLane="54653897#0_2" departPos="5.10" departSpeed="0.00" departDelay="-0.29" arrival="234.00" arrivalLane="38128426#1_0" arrivalPos="87.96" arrivalSpeed="7.94" duration="156.00" routeLength="1544.62" waitingTime="8.00" waitingCount="1" stopTime="0.00" timeLoss="39.89" rerouteNo="1" devices="tripinfo_veh17 routing_veh17" vType="veh_passenger" speedFactor="0.94" vaporized=""/>
    <tripinfo id="veh4" depart="18.00" departLane="-154946349#1_0" departPos="5.10" departSpeed="0.00" departDelay="-0.42" arrival="235.00" arrivalLane="-38300057#0_0" arrivalPos="98.62" arrivalSpeed="10.48" duration="217.00" routeLength="1619.29" waitingTime="52.00" waitingCount="3" stopTime="0.00" timeLoss="89.87" rerouteNo="1" devices="tripinfo_veh4 routing_veh4" vType="veh_passenger" speedFactor="0.83" vaporized=""/>
    <tripinfo id="veh18" depart="82.00" departLane="384467503#3_0" departPos="5.10" departSpeed="0.00" departDelay="-0.90" arrival="237.00" arrivalLane="-154946370#4_0" arrivalPos="20.27" arrivalSpeed="12.37" duration="155.00" routeLength="1995.44" waitingTime="1.00" waitingCount="1" stopTime="0.00" timeLoss="26.20" rerouteNo="1" devices="tripinfo_veh18 routing_veh18" vType="veh_passenger" speedFactor="0.94" vaporized=""/>
    <tripinfo id="veh30" depart="139.00" departLane="534916585#0_1" departPos="5.10" departSpeed="0.00" departDelay="0.83" arrival="246.00" arrivalLane="4769209#2_2" arrivalPos="34.61" arrivalSpeed="13.14" duration="107.00" routeLength="1446.73" waitingTime="2.00" waitingCount="1" stopTime="0.00" timeLoss="18.01" rerouteNo="1" devices="tripinfo_veh30 routing_veh30" vType="veh_passenger" speedFactor="0.93" vaporized=""/>
    <tripinfo id="bike3" depart="20.00" departLane="719431751#0_0" departPos="1.70" departSpeed="0.00" departDelay="-0.61" arrival="264.00" arrivalLane="-23298885#2_0" arrivalPos="20.53" arrivalSpeed="5.38" duration="244.00" routeLength="1020.44" waitingTime="28.00" waitingCount="3" stopTime="0.00" timeLoss="59.35" rerouteNo="1" devices="tripinfo_bike3 routing_bike3" vType="bike_bicycle" speedFactor="1.09" vaporized=""/>
    <tripinfo id="veh11" depart="50.00" departLane="-37982501#2_0" departPos="5.10" departSpeed="0.00" departDelay="-0.66" arrival="265.00" arrivalLane="-38128383#1_0" arrivalPos="86.60" arrivalSpeed="13.00" duration="215.00" routeLength="1547.22" waitingTime="45.00" waitingCount="2" stopTime="0.00" timeLoss="114.50" rerouteNo="1" devices="tripinfo_veh11 routing_veh11" vType="veh_passenger" speedFactor="1.05" vaporized=""/>
    <tripinfo id="veh14" depart="64.00" departLane="38128385_0" departPos="5.10" departSpeed="0.00" departDelay="-0.48" arrival="267.00" arrivalLane="90200372#4_0" arrivalPos="4.39" arrivalSpeed="8.33" duration="203.00" routeLength="1674.65" waitingTime="52.00" waitingCount="1" stopTime="0.00" timeLoss="78.82" rerouteNo="1" devices="tripinfo_veh14 routing_veh14" vType="veh_passenger" speedFactor="0.93" vaporized=""/>
    <tripinfo id="veh42" depart="193.00" departLane="-37982501#0_0" departPos="5.10" departSpeed="0.00" departDelay="-0.43" arrival="267.00" arrivalLane="-154946370#5_0" arrivalPos="12.68" arrivalSpeed="7.84" duration="74.00" routeLength="726.18" waitingTime="0.00" waitingCount="0" stopTime="0.00" timeLoss="19.52" rerouteNo="1" devices="tripinfo_veh42 routing_veh42" vType="veh_passenger" speedFactor="1.03" vaporized=""/>
    <tripinfo id="bike22" depart="151.00" departLane="-187114675_0" departPos="1.70" departSpeed="0.00" departDelay="-0.11" arrival="277.00" arrivalLane="-42043536#1_0" arrivalPos="20.32" arrivalSpeed="5.19" duration="126.00" routeLength="510.55" waitingTime="0.00" waitingCount="0" stopTime="0.00" timeLoss="16.72" rerouteNo="1" devices="tripinfo_bike22 routing_bike22" vType="bike_bicycle" speedFactor="1.02" vaporized=""/>
    <tripinfo id="veh23" depart="105.00" departLane="143317252_0" departPos="5.10" departSpeed="0.00" departDelay="-0.93" arrival="281.00" arrivalLane="-384467502#2_0" arrivalPos="4.23" arrivalSpeed="12.23" duration="176.00" routeLength="1310.58" waitingTime="40.00" waitingCount="2" stopTime="0.00" timeLoss="73.95" rerouteNo="1" devices="tripinfo_veh23 routing_veh23" vType="veh_passenger" speedFactor="0.98" vaporized=""/>
    <tripinfo id="bike10" depart="70.00" departLane="4769209#2_0" departPos="1.70" departSpeed="0.00" departDelay="1.31" arrival="288.00" arrivalLane="40916610#2_0" arrivalPos="241.51" arrivalSpeed="5.33" duration="218.00" routeLength="970.69" waitingTime="21.00" waitingCount="2" stopTime="0.00" timeLoss="42.74" rerouteNo="1" devices="tripinfo_bike10 routing_bike10" vType="bike_bicycle" speedFactor="1.02" vaporized=""/>
    <tripinfo id="veh52" depart="239.00" departLane="23111989#3_0" departPos="5.10" departSpeed="0.00" departDelay="-0.49" arrival="289.00" arrivalLane="792838976#3_0" arrivalPos="25.98" arrivalSpeed="13.48" duration="50.00" routeLength="589.86" waitingTime="0.00" waitingCount="0" stopTime="0.00" timeLoss="7.26" rerouteNo="1" devices="tripinfo_veh52 routing_veh52" vType="veh_passenger" speedFactor="1.06" vaporized=""/>
    <tripinfo id="veh8" depart="36.00" departLane="4769351#4_0" departPos="5.10" departSpeed="0.00" departDelay="-0.84" arrival="290.00" arrivalLane="384467504#1_0" arrivalPos="8.98" arrivalSpeed="11.26" duration="254.00" routeLength="2354.50" waitingTime="45.00" waitingCount="3" stopTime="0.00" timeLoss="78.35" rerouteNo="1" devices="tripinfo_veh8 routing_veh8" vType="veh_passenger" speedFactor="0.86" vaporized=""/>
    <tripinfo id="veh15" depart="69.00" departLane="143317261#1_0" departPos="5.10" departSpeed="0.00" departDelay="-0.08" arrival="291.00" arrivalLane="38128400_0" arrivalPos="28.29" arrivalSpeed="9.21" duration="222.00" routeLength="2145.86" waitingTime="20.00" waitingCount="2" stopTime="0.00" timeLoss="58.97" rerouteNo="1" devices="tripinfo_veh15 routing_veh15" vType="veh_passenger" speedFactor="0.88" vaporized=""/>
    <tripinfo id="bike26" depart="178.00" departLane="-444110736_0" departPos="1.70" departSpeed="0.00" departDelay="-0.58" arrival="293.00" arrivalLane="867556496#5_0" arrivalPos="5.56" arrivalSpeed="3.24" duration="115.00" routeLength="537.73" waitingTime="0.00" waitingCount="0" stopTime="0.00" timeLoss="13.25" rerouteNo="1" devices="tripinfo_bike26 routing_bike26" vType="bike_bicycle" speedFactor="0.88" vaporized=""/>
</tripinfos>
