<?xml version="1.0" encoding="UTF-8"?>

<!-- generated on 2022-03-10 12:30:27 by Eclipse SUMO GUI Version 1.12.0
<configuration xmlns:xsi="http://www.w3.org/2001/XMLSchema-instance" xsi:noNamespaceSchemaLocation="http://sumo.dlr.de/xsd/sumoConfiguration.xsd">

    <input>
        <net-file value="C:\Users\elamb\Sumo\2022-03-10-11-17-40\osm.net.xml"/>
        <route-files value="C:\Users\elamb\Sumo\2022-03-10-11-17-40\osm.passenger.trips.xml,C:\Users\elamb\Sumo\2022-03-10-11-17-40\osm.bicycle.trips.xml"/>
        <additional-files value="C:\Users\elamb\Sumo\2022-03-10-11-17-40\osm.poly.xml"/>
    </input>

    <output>
        <tripinfo-output value="C:\Users\elamb\Sumo\2022-03-10-11-17-40\sumo_tripinfo.out"/>
    </output>

    <processing>
        <ignore-route-errors value="true"/>
    </processing>

    <routing>
        <device.rerouting.adaptation-steps value="18"/>
        <device.rerouting.adaptation-interval value="10"/>
    </routing>

    <report>
        <verbose value="true"/>
        <duration-log.statistics value="true"/>
        <no-step-log value="true"/>
    </report>

    <gui_only>
        <gui-settings-file value="C:\Users\elamb\Sumo\2022-03-10-11-17-40\osm.view.xml"/>
    </gui_only>

</configuration>
-->

<tripinfos xmlns:xsi="http://www.w3.org/2001/XMLSchema-instance" xsi:noNamespaceSchemaLocation="http://sumo.dlr.de/xsd/tripinfo_file.xsd">
    <tripinfo id="veh13" depart="60.00" departLane="4769351#6_0" departPos="5.10" departSpeed="0.00" departDelay="0.13" arrival="118.00" arrivalLane="4326325#0_1" arrivalPos="0.20" arrivalSpeed="5.97" duration="58.00" routeLength="508.00" waitingTime="0.00" waitingCount="0" stopTime="0.00" timeLoss="19.62" rerouteNo="1" devices="tripinfo_veh13 routing_veh13" vType="veh_passenger" speedFactor="0.99" vaporized=""/>
    <tripinfo id="veh0" depart="0.00" departLane="38300057#0_0" departPos="5.10" departSpeed="0.00" departDelay="0.00" arrival="119.00" arrivalLane="-150387776_0" arrivalPos="16.47" arrivalSpeed="17.19" duration="119.00" routeLength="801.53" waitingTime="46.00" waitingCount="1" stopTime="0.00" timeLoss="67.05" rerouteNo="1" devices="tripinfo_veh0 routing_veh0" vType="veh_passenger" speedFactor="1.06" vaporized=""/>
    <tripinfo id="bike17" depart="117.00" departLane="-852529749#1_0" departPos="1.70" departSpeed="0.00" departDelay="0.23" arrival="150.00" arrivalLane="29719964#1_0" arrivalPos="9.98" arrivalSpeed="5.13" duration="33.00" routeLength="155.57" waitingTime="0.00" waitingCount="0" stopTime="0.00" timeLoss="3.53" rerouteNo="1" devices="tripinfo_bike17 routing_bike17" vType="bike_bicycle" speedFactor="1.14" vaporized=""/>
    <tripinfo id="veh12" depart="56.00" departLane="534916585#1_0" departPos="5.10" departSpeed="0.00" departDelay="0.73" arrival="175.00" arrivalLane="38128444#3_0" arrivalPos="34.42" arrivalSpeed="15.20" duration="119.00" routeLength="1442.93" waitingTime="4.00" waitingCount="2" stopTime="0.00" timeLoss="29.08" rerouteNo="1" devices="tripinfo_veh12 routing_veh12" vType="veh_passenger" speedFactor="1.12" vaporized=""/>
    <tripinfo id="bike8" depart="55.00" departLane="-38508056#1_0" departPos="1.70" departSpeed="0.00" departDelay="0.05" arrival="175.00" arrivalLane="38128384#4_0" arrivalPos="13.93" arrivalSpeed="5.44" duration="120.00" routeLength="612.50" waitingTime="0.00" waitingCount="0" stopTime="0.00" timeLoss="9.75" rerouteNo="1" devices="tripinfo_bike8 routing_bike8" vType="bike_bicycle" speedFactor="0.85" vaporized=""/>
    <tripinfo id="veh9" depart="42.00" departLane="-90200380#7_0" departPos="5.10" departSpeed="0.00" departDelay="0.55" arrival="185.00" arrivalLane="-38128426#3_0" arrivalPos="45.14" arrivalSpeed="9.74" duration="143.00" routeLength="1776.57" waitingTime="0.00" waitingCount="0" stopTime="0.00" timeLoss="33.49" rerouteNo="1" devices="tripinfo_veh9 routing_veh9" vType="veh_passenger" speedFactor="1.09" vaporized=""/>
    <tripinfo id="veh2" depart="10.00" departLane="40916616#0_0" departPos="5.10" departSpeed="0.00" departDelay="0.79" arrival="211.00" arrivalLane="384467498#2_0" arrivalPos="10.54" arrivalSpeed="13.26" duration="201.00" routeLength="1365.60" waitingTime="85.00" waitingCount="3" stopTime="0.00" timeLoss="118.20" rerouteNo="1" devices="tripinfo_veh2 routing_veh2" vType="veh_passenger" speedFactor="1.03" vaporized=""/>
    <tripinfo id="veh29" depart="134.00" departLane="38128401#1_0" departPos="5.10" departSpeed="0.00" departDelay="0.44" arrival="212.00" arrivalLane="384467499#0_0" arrivalPos="3.81" arrivalSpeed="14.43" duration="78.00" routeLength="626.43" waitingTime="21.00" waitingCount="1" stopTime="0.00" timeLoss="39.81" rerouteNo="1" devices="tripinfo_veh29 routing_veh29" vType="veh_passenger" speedFactor="1.13" vaporized=""/>
    <tripinfo id="veh1" depart="5.00" departLane="-57400731#0_0" departPos="5.10" departSpeed="0.00" departDelay="0.39" arrival="218.00" arrivalLane="-38508047#2_0" arrivalPos="0.74" arrivalSpeed="8.41" duration="213.00" routeLength="1757.74" waitingTime="44.00" waitingCount="1" stopTime="0.00" timeLoss="75.93" rerouteNo="1" devices="tripinfo_veh1 routing_veh1" vType="veh_passenger" speedFactor="0.94" vaporized=""/>
    <tripinfo id="veh5" depart="24.00" departLane="384392306#2_0" departPos="4.29" departSpeed="0.00" departDelay="0.97" arrival="222.00" arrivalLane="38128396_0" arrivalPos="338.01" arrivalSpeed="9.34" duration="198.00" routeLength="1457.09" waitingTime="65.00" waitingCount="2" stopTime="0.00" timeLoss="90.53" rerouteNo="1" devices="tripinfo_veh5 routing_veh5" vType="veh_passenger" speedFactor="1.05" vaporized=""/>
    <tripinfo id="veh6" depart="28.00" departLane="-38508032_0" departPos="5.10" departSpeed="0.00" departDelay="0.37" arrival="223.00" arrivalLane="38128431#2_0" arrivalPos="57.09" arrivalSpeed="12.30" duration="195.00" routeLength="1752.36" waitingTime="0.00" waitingCount="0" stopTime="0.00" timeLoss="41.90" rerouteNo="1" devices="tripinfo_veh6 routing_veh6" vType="veh_passenger" speedFactor="0.89" vaporized=""/>
    <tripinfo id="bike1" depart="7.00" departLane="-444110764#1_0" departPos="1.70" departSpeed="0.00" departDelay="0.13" arrival="227.00" arrivalLane="-40916610#1_0" arrivalPos="50.67" arrivalSpeed="5.19" duration="220.00" routeLength="1044.79" waitingTime="8.00" waitingCount="2" stopTime="0.00" timeLoss="31.09" rerouteNo="1" devices="tripinfo_bike1 routing_bike1" vType="bike_bicycle" speedFactor="1.08" vaporized=""/>
    <tripinfo id="veh17" depart="79.00" departLane="54653897#0_2" departPos="5.10" departSpeed="0.00" departDelay="0.71" arrival="236.00" arrivalLane="38128426#1_0" arrivalPos="87.96" arrivalSpeed="8.30" duration="157.00" routeLength="1544.62" waitingTime="11.00" waitingCount="2" stopTime="0.00" timeLoss="41.26" rerouteNo="1" devices="tripinfo_veh17 routing_veh17" vType="veh_passenger" speedFactor="0.94" vaporized=""/>
    <tripinfo id="veh4" depart="19.00" departLane="-154946349#1_0" departPos="5.10" departSpeed="0.00" departDelay="0.58" arrival="237.00" arrivalLane="-38300057#0_0" arrivalPos="98.62" arrivalSpeed="10.30" duration="218.00" routeLength="1617.96" waitingTime="54.00" waitingCount="3" stopTime="0.00" timeLoss="90.29" rerouteNo="1" devices="tripinfo_veh4 routing_veh4" vType="veh_passenger" speedFactor="0.83" vaporized=""/>
    <tripinfo id="veh18" depart="83.00" departLane="384467503#3_0" departPos="5.10" departSpeed="0.00" departDelay="0.10" arrival="238.00" arrivalLane="-154946370#4_0" arrivalPos="20.27" arrivalSpeed="12.19" duration="155.00" routeLength="1995.44" waitingTime="2.00" waitingCount="1" stopTime="0.00" timeLoss="25.93" rerouteNo="1" devices="tripinfo_veh18 routing_veh18" vType="veh_passenger" speedFactor="0.94" vaporized=""/>
    <tripinfo id="veh30" depart="140.00" departLane="534916585#0_1" departPos="5.10" departSpeed="0.00" departDelay="1.83" arrival="247.00" arrivalLane="4769209#2_2" arrivalPos="34.61" arrivalSpeed="12.10" duration="107.00" routeLength="1446.73" waitingTime="1.00" waitingCount="1" stopTime="0.00" timeLoss="16.95" rerouteNo="1" devices="tripinfo_veh30 routing_veh30" vType="veh_passenger" speedFactor="0.93" vaporized=""/>
    <tripinfo id="veh11" depart="51.00" departLane="-37982501#2_0" departPos="5.10" departSpeed="0.00" departDelay="0.34" arrival="262.00" arrivalLane="-38128383#1_0" arrivalPos="86.60" arrivalSpeed="12.86" duration="211.00" routeLength="1545.89" waitingTime="36.00" waitingCount="3" stopTime="0.00" timeLoss="110.12" rerouteNo="1" devices="tripinfo_veh11 routing_veh11" vType="veh_passenger" speedFactor="1.05" vaporized=""/>
    <tripinfo id="bike3" depart="21.00" departLane="719431751#0_0" departPos="1.70" departSpeed="0.00" departDelay="0.39" arrival="263.00" arrivalLane="-23298885#2_0" arrivalPos="20.53" arrivalSpeed="5.16" duration="242.00" routeLength="1020.44" waitingTime="25.00" waitingCount="4" stopTime="0.00" timeLoss="58.21" rerouteNo="1" devices="tripinfo_bike3 routing_bike3" vType="bike_bicycle" speedFactor="1.09" vaporized=""/>
    <tripinfo id="veh14" depart="65.00" departLane="38128385_0" departPos="5.10" departSpeed="0.00" departDelay="0.52" arrival="268.00" arrivalLane="90200372#4_0" arrivalPos="4.39" arrivalSpeed="9.39" duration="203.00" routeLength="1674.65" waitingTime="54.00" waitingCount="1" stopTime="0.00" timeLoss="80.07" rerouteNo="1" devices="tripinfo_veh14 routing_veh14" vType="veh_passenger" speedFactor="0.93" vaporized=""/>
    <tripinfo id="veh42" depart="194.00" departLane="-37982501#0_0" departPos="5.10" departSpeed="0.00" departDelay="0.57" arrival="268.00" arrivalLane="-154946370#5_0" arrivalPos="12.68" arrivalSpeed="7.65" duration="74.00" routeLength="726.18" waitingTime="0.00" waitingCount="0" stopTime="0.00" timeLoss="19.95" rerouteNo="1" devices="tripinfo_veh42 routing_veh42" vType="veh_passenger" speedFactor="1.03" vaporized=""/>
    <tripinfo id="bike22" depart="152.00" departLane="-187114675_0" departPos="1.70" departSpeed="0.00" departDelay="0.89" arrival="275.00" arrivalLane="-42043536#1_0" arrivalPos="20.32" arrivalSpeed="5.36" duration="123.00" routeLength="510.55" waitingTime="0.00" waitingCount="0" stopTime="0.00" timeLoss="13.58" rerouteNo="1" devices="tripinfo_bike22 routing_bike22" vType="bike_bicycle" speedFactor="1.02" vaporized=""/>
    <tripinfo id="veh23" depart="106.00" departLane="143317252_0" departPos="5.10" departSpeed="0.00" departDelay="0.07" arrival="281.00" arrivalLane="-384467502#2_0" arrivalPos="4.23" arrivalSpeed="12.56" duration="175.00" routeLength="1310.58" waitingTime="33.00" waitingCount="2" stopTime="0.00" timeLoss="72.98" rerouteNo="1" devices="tripinfo_veh23 routing_veh23" vType="veh_passenger" speedFactor="0.98" vaporized=""/>
    <tripinfo id="bike10" depart="70.00" departLane="4769209#2_0" departPos="1.70" departSpeed="0.00" departDelay="1.31" arrival="288.00" arrivalLane="40916610#2_0" arrivalPos="241.51" arrivalSpeed="5.04" duration="218.00" routeLength="970.69" waitingTime="23.00" waitingCount="2" stopTime="0.00" timeLoss="43.12" rerouteNo="1" devices="tripinfo_bike10 routing_bike10" vType="bike_bicycle" speedFactor="1.02" vaporized=""/>
    <tripinfo id="veh15" depart="70.00" departLane="143317261#1_0" departPos="5.10" departSpeed="0.00" departDelay="0.92" arrival="290.00" arrivalLane="38128400_0" arrivalPos="28.29" arrivalSpeed="10.30" duration="220.00" routeLength="2145.86" waitingTime="22.00" waitingCount="2" stopTime="0.00" timeLoss="58.72" rerouteNo="1" devices="tripinfo_veh15 routing_veh15" vType="veh_passenger" speedFactor="0.88" vaporized=""/>
    <tripinfo id="veh52" depart="240.00" departLane="23111989#3_0" departPos="5.10" departSpeed="0.00" departDelay="0.51" arrival="291.00" arrivalLane="792838976#3_0" arrivalPos="25.98" arrivalSpeed="14.10" duration="51.00" routeLength="589.86" waitingTime="0.00" waitingCount="0" stopTime="0.00" timeLoss="7.95" rerouteNo="1" devices="tripinfo_veh52 routing_veh52" vType="veh_passenger" speedFactor="1.06" vaporized=""/>
    <tripinfo id="bike26" depart="179.00" departLane="-444110736_0" departPos="1.70" departSpeed="0.00" departDelay="0.42" arrival="294.00" arrivalLane="867556496#5_0" arrivalPos="5.56" arrivalSpeed="3.41" duration="115.00" routeLength="537.73" waitingTime="0.00" waitingCount="0" stopTime="0.00" timeLoss="13.49" rerouteNo="1" devices="tripinfo_bike26 routing_bike26" vType="bike_bicycle" speedFactor="0.88" vaporized=""/>
    <tripinfo id="veh28" depart="129.00" departLane="96742261#2_0" departPos="5.10" departSpeed="0.00" departDelay="0.04" arrival="320.00" arrivalLane="384392307#0_0" arrivalPos="0.20" arrivalSpeed="14.70" duration="191.00" routeLength="1978.06" waitingTime="24.00" waitingCount="4" stopTime="0.00" timeLoss="63.07" rerouteNo="1" devices="tripinfo_veh28 routing_veh28" vType="veh_passenger" speedFactor="0.95" vaporized=""/>
    <tripinfo id="veh36" depart="166.00" departLane="686936940#12_0" departPos="5.10" departSpeed="0.00" departDelay="0.20" arrival="321.00" arrivalLane="23777646#0_1" arrivalPos="31.52" arrivalSpeed="13.33" duration="155.00" routeLength="1104.95" waitingTime="39.00" waitingCount="3" stopTime="0.00" timeLoss="69.65" rerouteNo="1" devices="tripinfo_veh36 routing_veh36" vType="veh_passenger" speedFactor="1.02" vaporized=""/>
    <tripinfo id="veh10" depart="47.00" departLane="8065751#4_0" departPos="5.10" departSpeed="0.00" departDelay="0.94" arrival="333.00" arrivalLane="-90200380#5_0" arrivalPos="18.85" arrivalSpeed="13.73" duration="286.00" routeLength="3632.62" waitingTime="27.00" waitingCount="1" stopTime="0.00" timeLoss="69.03" rerouteNo="1" devices="tripinfo_veh10 routing_veh10" vType="veh_passenger" speedFactor="1.03" vaporized=""/>
    <tripinfo id="veh21" depart="97.00" departLane="-38128383#4_0" departPos="4.71" departSpeed="0.00" departDelay="0.28" arrival="333.00" arrivalLane="-686936940#12_0" arrivalPos="45.50" arrivalSpeed="13.09" duration="236.00" routeLength="2119.59" waitingTime="56.00" waitingCount="4" stopTime="0.00" timeLoss="96.81" rerouteNo="1" devices="tripinfo_veh21 routing_veh21" vType="veh_passenger" speedFactor="1.02" vaporized=""/>
    <tripinfo id="veh8" depart="37.00" departLane="4769351#4_0" departPos="5.10" departSpeed="0.00" departDelay="0.16" arrival="335.00" arrivalLane="384467504#1_1" arrivalPos="8.98" arrivalSpeed="11.22" duration="298.00" routeLength="2353.17" waitingTime="71.00" waitingCount="7" stopTime="0.00" timeLoss="121.80" rerouteNo="1" devices="tripinfo_veh8 routing_veh8" vType="veh_passenger" speedFactor="0.86" vaporized=""/>
    <tripinfo id="veh26" depart="120.00" departLane="-38128436#0_0" departPos="5.10" departSpeed="0.00" departDelay="0.26" arrival="335.00" arrivalLane="4326325#0_1" arrivalPos="0.20" arrivalSpeed="5.62" duration="215.00" routeLength="1282.42" waitingTime="85.00" waitingCount="3" stopTime="0.00" timeLoss="118.05" rerouteNo="1" devices="tripinfo_veh26 routing_veh26" vType="veh_passenger" speedFactor="0.87" vaporized=""/>
    <tripinfo id="bike0" depart="0.00" departLane="38128439#2_0" departPos="1.70" departSpeed="0.00" departDelay="0.00" arrival="339.00" arrivalLane="-143317268#3_0" arrivalPos="7.12" arrivalSpeed="5.19" duration="339.00" routeLength="1720.74" waitingTime="2.00" waitingCount="1" stopTime="0.00" timeLoss="28.10" rerouteNo="1" devices="tripinfo_bike0 routing_bike0" vType="bike_bicycle" speedFactor="1.01" vaporized=""/>
    <tripinfo id="veh34" depart="157.00" departLane="54729945#2_0" departPos="5.10" departSpeed="0.00" departDelay="0.41" arrival="339.00" arrivalLane="-792838976#3_0" arrivalPos="26.21" arrivalSpeed="11.66" duration="182.00" routeLength="2196.89" waitingTime="5.00" waitingCount="2" stopTime="0.00" timeLoss="52.09" rerouteNo="1" devices="tripinfo_veh34 routing_veh34" vType="veh_passenger" speedFactor="1.17" vaporized=""/>
    <tripinfo id="veh38" depart="176.00" departLane="38128404_0" departPos="5.10" departSpeed="0.00" departDelay="0.99" arrival="344.00" arrivalLane="-498103891#3_0" arrivalPos="45.22" arrivalSpeed="15.81" duration="168.00" routeLength="1164.68" waitingTime="46.00" waitingCount="6" stopTime="0.00" timeLoss="97.21" rerouteNo="1" devices="tripinfo_veh38 routing_veh38" vType="veh_passenger" speedFactor="1.18" vaporized=""/>
    <tripinfo id="veh35" depart="162.00" departLane="384392308#1_0" departPos="0.20" departSpeed="0.00" departDelay="0.80" arrival="345.00" arrivalLane="150387790#2_0" arrivalPos="14.58" arrivalSpeed="12.55" duration="183.00" routeLength="1842.67" waitingTime="31.00" waitingCount="4" stopTime="0.00" timeLoss="70.81" rerouteNo="1" devices="tripinfo_veh35 routing_veh35" vType="veh_passenger" speedFactor="0.99" vaporized=""/>
    <tripinfo id="veh20" depart="93.00" departLane="-26442127#3_0" departPos="5.10" departSpeed="0.00" departDelay="0.89" arrival="349.00" arrivalLane="-38508057_0" arrivalPos="7.90" arrivalSpeed="11.03" duration="256.00" routeLength="2157.58" waitingTime="73.00" waitingCount="1" stopTime="0.00" timeLoss="128.33" rerouteNo="1" devices="tripinfo_veh20 routing_veh20" vType="veh_passenger" speedFactor="1.16" vaporized=""/>
    <tripinfo id="bike6" depart="42.00" departLane="-143317268#5_0" departPos="1.70" departSpeed="0.00" departDelay="0.79" arrival="352.00" arrivalLane="-384394382_0" arrivalPos="82.58" arrivalSpeed="4.48" duration="310.00" routeLength="1356.82" waitingTime="23.00" waitingCount="1" stopTime="0.00" timeLoss="49.46" rerouteNo="1" devices="tripinfo_bike6 routing_bike6" vType="bike_bicycle" speedFactor="0.88" vaporized=""/>
    <tripinfo id="veh61" depart="281.00" departLane="54729971#0_0" departPos="5.10" departSpeed="0.00" departDelay="0.06" arrival="353.00" arrivalLane="534916576_2" arrivalPos="4.20" arrivalSpeed="17.81" duration="72.00" routeLength="1023.35" waitingTime="0.00" waitingCount="0" stopTime="0.00" timeLoss="11.86" rerouteNo="1" devices="tripinfo_veh61 routing_veh61" vType="veh_passenger" speedFactor="1.02" vaporized=""/>
    <tripinfo id="veh24" depart="111.00" departLane="-498103891#5_1" departPos="5.10" departSpeed="0.00" departDelay="0.47" arrival="359.00" arrivalLane="744686036#4_0" arrivalPos="56.36" arrivalSpeed="11.75" duration="248.00" routeLength="2242.68" waitingTime="21.00" waitingCount="2" stopTime="0.00" timeLoss="73.96" rerouteNo="1" devices="tripinfo_veh24 routing_veh24" vType="veh_passenger" speedFactor="0.89" vaporized=""/>
    <tripinfo id="veh56" depart="258.00" departLane="38128447_0" departPos="5.10" departSpeed="0.00" departDelay="0.09" arrival="360.00" arrivalLane="-38128426#0_0" arrivalPos="69.69" arrivalSpeed="8.32" duration="102.00" routeLength="983.61" waitingTime="0.00" waitingCount="0" stopTime="0.00" timeLoss="18.47" rerouteNo="1" devices="tripinfo_veh56 routing_veh56" vType="veh_passenger" speedFactor="0.98" vaporized=""/>
    <tripinfo id="veh57" depart="263.00" departLane="4769187#1_0" departPos="5.10" departSpeed="0.00" departDelay="0.48" arrival="361.00" arrivalLane="38128394#1_0" arrivalPos="16.32" arrivalSpeed="8.85" duration="98.00" routeLength="893.76" waitingTime="0.00" waitingCount="0" stopTime="0.00" timeLoss="14.33" rerouteNo="1" devices="tripinfo_veh57 routing_veh57" vType="veh_passenger" speedFactor="1.01" vaporized=""/>
    <tripinfo id="veh25" depart="116.00" departLane="384392306#2_0" departPos="4.29" departSpeed="0.00" departDelay="0.86" arrival="366.00" arrivalLane="38128450#1_0" arrivalPos="17.38" arrivalSpeed="11.05" duration="250.00" routeLength="2048.73" waitingTime="47.00" waitingCount="3" stopTime="0.00" timeLoss="80.20" rerouteNo="1" devices="tripinfo_veh25 routing_veh25" vType="veh_passenger" speedFactor="0.83" vaporized=""/>
    <tripinfo id="veh39" depart="180.00" departLane="38128427#1_0" departPos="5.10" departSpeed="0.00" departDelay="0.38" arrival="368.00" arrivalLane="6016588#6_0" arrivalPos="409.58" arrivalSpeed="34.27" duration="188.00" routeLength="2168.94" waitingTime="50.00" waitingCount="2" stopTime="0.00" timeLoss="87.03" rerouteNo="1" devices="tripinfo_veh39 routing_veh39" vType="veh_passenger" speedFactor="1.10" vaporized=""/>
    <tripinfo id="veh59" depart="272.00" departLane="-142725082_0" departPos="5.10" departSpeed="0.00" departDelay="0.27" arrival="371.00" arrivalLane="-90200364#2_0" arrivalPos="6.14" arrivalSpeed="12.83" duration="99.00" routeLength="1006.17" waitingTime="2.00" waitingCount="1" stopTime="0.00" timeLoss="31.09" rerouteNo="1" devices="tripinfo_veh59 routing_veh59" vType="veh_passenger" speedFactor="1.03" vaporized=""/>
    <tripinfo id="veh68" depart="314.00" departLane="-498103891#3_1" departPos="5.10" departSpeed="0.00" departDelay="0.82" arrival="377.00" arrivalLane="54729971#1_0" arrivalPos="99.42" arrivalSpeed="12.66" duration="63.00" routeLength="541.94" waitingTime="6.00" waitingCount="1" stopTime="0.00" timeLoss="21.25" rerouteNo="1" devices="tripinfo_veh68 routing_veh68" vType="veh_passenger" speedFactor="1.01" vaporized=""/>
    <tripinfo id="bike41" depart="284.00" departLane="38128383#10_0" departPos="1.70" departSpeed="0.00" departDelay="2.39" arrival="380.00" arrivalLane="744686036#3_0" arrivalPos="25.44" arrivalSpeed="5.21" duration="96.00" routeLength="482.71" waitingTime="0.00" waitingCount="0" stopTime="0.00" timeLoss="8.17" rerouteNo="1" devices="tripinfo_bike41 routing_bike41" vType="bike_bicycle" speedFactor="1.18" vaporized=""/>
    <tripinfo id="veh32" depart="148.00" departLane="-792838976#2_0" departPos="5.10" departSpeed="0.00" departDelay="0.62" arrival="381.00" arrivalLane="-498103891#6_0" arrivalPos="30.19" arrivalSpeed="15.29" duration="233.00" routeLength="2063.90" waitingTime="33.00" waitingCount="4" stopTime="0.00" timeLoss="111.57" rerouteNo="1" devices="tripinfo_veh32 routing_veh32" vType="veh_passenger" speedFactor="1.15" vaporized=""/>
    <tripinfo id="veh58" depart="268.00" departLane="4769209#0_0" departPos="5.10" departSpeed="0.00" departDelay="0.88" arrival="387.00" arrivalLane="38128384#3_0" arrivalPos="51.92" arrivalSpeed="14.57" duration="119.00" routeLength="1170.43" waitingTime="11.00" waitingCount="2" stopTime="0.00" timeLoss="47.11" rerouteNo="1" devices="tripinfo_veh58 routing_veh58" vType="veh_passenger" speedFactor="1.09" vaporized=""/>
    <tripinfo id="veh65" depart="300.00" departLane="-23111989#2_0" departPos="5.10" departSpeed="0.00" departDelay="0.64" arrival="388.00" arrivalLane="4769208#0_1" arrivalPos="178.39" arrivalSpeed="17.05" duration="88.00" routeLength="1020.59" waitingTime="0.00" waitingCount="0" stopTime="0.00" timeLoss="16.13" rerouteNo="1" devices="tripinfo_veh65 routing_veh65" vType="veh_passenger" speedFactor="1.00" vaporized=""/>
    <tripinfo id="veh66" depart="304.00" departLane="4769187#2_0" departPos="5.10" departSpeed="0.00" departDelay="0.03" arrival="388.00" arrivalLane="-38128399#1_0" arrivalPos="41.99" arrivalSpeed="13.16" duration="84.00" routeLength="944.88" waitingTime="2.00" waitingCount="1" stopTime="0.00" timeLoss="22.54" rerouteNo="1" devices="tripinfo_veh66 routing_veh66" vType="veh_passenger" speedFactor="1.04" vaporized=""/>
    <tripinfo id="bike36" depart="248.00" departLane="694559955#0_0" departPos="0.20" departSpeed="0.00" departDelay="0.73" arrival="393.00" arrivalLane="-686936940#14_0" arrivalPos="35.13" arrivalSpeed="5.37" duration="145.00" routeLength="733.11" waitingTime="0.00" waitingCount="0" stopTime="0.00" timeLoss="12.89" rerouteNo="1" devices="tripinfo_bike36 routing_bike36" vType="bike_bicycle" speedFactor="1.10" vaporized=""/>
    <tripinfo id="veh7" depart="33.00" departLane="4769351#8_0" departPos="5.10" departSpeed="0.00" departDelay="0.76" arrival="401.00" arrivalLane="-142725085#5_0" arrivalPos="77.27" arrivalSpeed="12.18" duration="368.00" routeLength="3143.82" waitingTime="90.00" waitingCount="5" stopTime="0.00" timeLoss="147.83" rerouteNo="1" devices="tripinfo_veh7 routing_veh7" vType="veh_passenger" speedFactor="0.94" vaporized=""/>
    <tripinfo id="veh54" depart="249.00" departLane="686936940#1_0" departPos="5.10" departSpeed="0.00" departDelay="0.30" arrival="402.00" arrivalLane="54729971#0_0" arrivalPos="32.39" arrivalSpeed="12.20" duration="153.00" routeLength="1572.84" waitingTime="10.00" waitingCount="1" stopTime="0.00" timeLoss="31.95" rerouteNo="1" devices="tripinfo_veh54 routing_veh54" vType="veh_passenger" speedFactor="0.98" vaporized=""/>
    <tripinfo id="bike16" depart="110.00" departLane="23111989#4_0" departPos="1.70" departSpeed="0.00" departDelay="0.10" arrival="404.00" arrivalLane="943972929#0_0" arrivalPos="20.68" arrivalSpeed="2.17" duration="294.00" routeLength="1070.83" waitingTime="0.00" waitingCount="0" stopTime="0.00" timeLoss="29.62" rerouteNo="1" devices="tripinfo_bike16 routing_bike16" vType="bike_bicycle" speedFactor="0.90" vaporized=""/>
    <tripinfo id="veh50" depart="231.00" departLane="-498103891#5_1" departPos="5.10" departSpeed="0.00" departDelay="0.72" arrival="406.00" arrivalLane="384392307#1_1" arrivalPos="6.39" arrivalSpeed="16.08" duration="175.00" routeLength="2064.93" waitingTime="6.00" waitingCount="1" stopTime="0.00" timeLoss="38.01" rerouteNo="1" devices="tripinfo_veh50 routing_veh50" vType="veh_passenger" speedFactor="0.94" vaporized=""/>
    <tripinfo id="veh46" depart="212.00" departLane="96783578#0_0" departPos="5.10" departSpeed="0.00" departDelay="0.14" arrival="409.00" arrivalLane="38128384#1_0" arrivalPos="34.71" arrivalSpeed="14.40" duration="197.00" routeLength="1747.04" waitingTime="41.00" waitingCount="4" stopTime="0.00" timeLoss="83.95" rerouteNo="1" devices="tripinfo_veh46 routing_veh46" vType="veh_passenger" speedFactor="1.04" vaporized=""/>
    <tripinfo id="bike4" depart="28.00" departLane="-943972889#1_0" departPos="1.70" departSpeed="0.00" departDelay="0.53" arrival="413.00" arrivalLane="-143317270_0" arrivalPos="117.38" arrivalSpeed="5.17" duration="385.00" routeLength="1902.47" waitingTime="10.00" waitingCount="2" stopTime="0.00" timeLoss="41.53" rerouteNo="1" devices="tripinfo_bike4 routing_bike4" vType="bike_bicycle" speedFactor="1.00" vaporized=""/>
    <tripinfo id="bike50" depart="344.00" departLane="-143236676_0" departPos="1.70" departSpeed="0.00" departDelay="0.57" arrival="413.00" arrivalLane="42043536#3_0" arrivalPos="22.03" arrivalSpeed="5.15" duration="69.00" routeLength="342.46" waitingTime="0.00" waitingCount="0" stopTime="0.00" timeLoss="6.79" rerouteNo="1" devices="tripinfo_bike50 routing_bike50" vType="bike_bicycle" speedFactor="1.06" vaporized=""/>
    <tripinfo id="veh37" depart="171.00" departLane="-498103891#3_1" departPos="5.10" departSpeed="0.00" departDelay="0.59" arrival="419.00" arrivalLane="-4769351#0_0" arrivalPos="23.94" arrivalSpeed="11.91" duration="248.00" routeLength="2189.29" waitingTime="51.00" waitingCount="3" stopTime="0.00" timeLoss="104.73" rerouteNo="1" devices="tripinfo_veh37 routing_veh37" vType="veh_passenger" speedFactor="0.97" vaporized=""/>
    <tripinfo id="veh43" depart="199.00" departLane="-38128384#5_0" departPos="5.10" departSpeed="0.00" departDelay="0.96" arrival="421.00" arrivalLane="38300057#0_0" arrivalPos="98.82" arrivalSpeed="13.11" duration="222.00" routeLength="1445.22" waitingTime="41.00" waitingCount="2" stopTime="0.00" timeLoss="113.13" rerouteNo="1" devices="tripinfo_veh43 routing_veh43" vType="veh_passenger" speedFactor="0.96" vaporized=""/>
    <tripinfo id="veh55" depart="254.00" departLane="-744686036#4_0" departPos="5.10" departSpeed="0.00" departDelay="0.69" arrival="421.00" arrivalLane="384392307#0_1" arrivalPos="0.20" arrivalSpeed="14.50" duration="167.00" routeLength="1665.55" waitingTime="28.00" waitingCount="1" stopTime="0.00" timeLoss="58.69" rerouteNo="1" devices="tripinfo_veh55 routing_veh55" vType="veh_passenger" speedFactor="1.03" vaporized=""/>
    <tripinfo id="veh49" depart="226.00" departLane="384467498#0_2" departPos="1.35" departSpeed="0.00" departDelay="0.33" arrival="424.00" arrivalLane="38128388_0" arrivalPos="65.51" arrivalSpeed="12.49" duration="198.00" routeLength="2007.16" waitingTime="10.00" waitingCount="2" stopTime="0.00" timeLoss="56.81" rerouteNo="1" devices="tripinfo_veh49 routing_veh49" vType="veh_passenger" speedFactor="0.97" vaporized=""/>
    <tripinfo id="veh75" depart="346.00" departLane="-90200380#5_0" departPos="5.10" departSpeed="0.00" departDelay="0.58" arrival="435.00" arrivalLane="38128431#0_0" arrivalPos="62.07" arrivalSpeed="14.91" duration="89.00" routeLength="922.86" waitingTime="0.00" waitingCount="0" stopTime="0.00" timeLoss="23.24" rerouteNo="1" devices="tripinfo_veh75 routing_veh75" vType="veh_passenger" speedFactor="1.09" vaporized=""/>
    <tripinfo id="veh44" depart="203.00" departLane="4769233#0_2" departPos="5.10" departSpeed="0.00" departDelay="0.35" arrival="442.00" arrivalLane="179058359#0_0" arrivalPos="16.67" arrivalSpeed="10.17" duration="239.00" routeLength="2624.34" waitingTime="30.00" waitingCount="4" stopTime="0.00" timeLoss="82.81" rerouteNo="1" devices="tripinfo_veh44 routing_veh44" vType="veh_passenger" speedFactor="1.09" vaporized=""/>
    <tripinfo id="veh31" depart="143.00" departLane="-38508049#0_0" departPos="5.10" departSpeed="0.00" departDelay="0.23" arrival="444.00" arrivalLane="-154946362#0_0" arrivalPos="65.48" arrivalSpeed="15.16" duration="301.00" routeLength="2627.01" waitingTime="36.00" waitingCount="1" stopTime="0.00" timeLoss="144.85" rerouteNo="1" devices="tripinfo_veh31 routing_veh31" vType="veh_passenger" speedFactor="1.18" vaporized=""/>
    <tripinfo id="bike47" depart="323.00" departLane="-154946403#0_0" departPos="1.70" departSpeed="0.00" departDelay="0.18" arrival="444.00" arrivalLane="-855236780#1_0" arrivalPos="8.09" arrivalSpeed="5.09" duration="121.00" routeLength="609.68" waitingTime="0.00" waitingCount="0" stopTime="0.00" timeLoss="10.56" rerouteNo="1" devices="tripinfo_bike47 routing_bike47" vType="bike_bicycle" speedFactor="1.10" vaporized=""/>