<?xml version="1.0" encoding="UTF-8"?>

<!-- generated on 03/24/22 14:29:37 by Eclipse SUMO GUI Version 1.5.0
<configuration xmlns:xsi="http://www.w3.org/2001/XMLSchema-instance" xsi:noNamespaceSchemaLocation="http://sumo.dlr.de/xsd/sumoConfiguration.xsd">

    <input>
        <net-file value="C:\Users\Ed\git_clones\trafficModel\SumoSim\2022-03-09-13-33-32\osm.net.xml"/>
        <route-files value="C:\Users\Ed\git_clones\trafficModel\SumoSim\2022-03-09-13-33-32\osm.passenger.trips.xml"/>
        <additional-files value="C:\Users\Ed\git_clones\trafficModel\SumoSim\2022-03-09-13-33-32\osm.poly.xml"/>
    </input>

    <output>
        <tripinfo-output value="C:\Users\Ed\git_clones\trafficModel\SumoSim\2022-03-09-13-33-32\tripinfo.out.xml"/>
        <tripinfo-output.write-unfinished value="true"/>
    </output>

    <processing>
        <ignore-route-errors value="true"/>
    </processing>

    <routing>
        <device.rerouting.adaptation-steps value="180"/>
    </routing>

    <report>
        <verbose value="true"/>
        <message-log value="C:\Users\Ed\git_clones\trafficModel\SumoSim\2022-03-09-13-33-32\statistic.out.xml"/>
        <error-log value="C:\Users\Ed\git_clones\trafficModel\SumoSim\2022-03-09-13-33-32\error.log.xml"/>
        <duration-log.statistics value="true"/>
        <no-step-log value="true"/>
    </report>

    <gui_only>
        <gui-settings-file value="C:\Users\Ed\git_clones\trafficModel\SumoSim\2022-03-09-13-33-32\osm.view.xml"/>
    </gui_only>

</configuration>
-->

<tripinfos xmlns:xsi="http://www.w3.org/2001/XMLSchema-instance" xsi:noNamespaceSchemaLocation="http://sumo.dlr.de/xsd/tripinfo_file.xsd">
    <tripinfo id="veh6" depart="24.00" departLane="38128483#0_0" departPos="5.10" departSpeed="32.24" departDelay="-0.93" arrival="162.00" arrivalLane="38128383#2_0" arrivalPos="102.43" arrivalSpeed="13.46" duration="138.00" routeLength="1827.42" waitingTime="38.00" waitingCount="2" stopTime="0.00" timeLoss="55.68" rerouteNo="1" devices="tripinfo_veh6 routing_veh6" vType="veh_passenger" speedFactor="1.03" vaporized=""/>
    <tripinfo id="veh19" depart="78.00" departLane="-33538172#2_0" departPos="3.69" departSpeed="0.00" departDelay="-0.94" arrival="171.00" arrivalLane="-57400726#0_0" arrivalPos="221.45" arrivalSpeed="11.92" duration="93.00" routeLength="902.28" waitingTime="0.00" waitingCount="0" stopTime="0.00" timeLoss="17.54" rerouteNo="1" devices="tripinfo_veh19 routing_veh19" vType="veh_passenger" speedFactor="0.88" vaporized=""/>
    <tripinfo id="veh4" depart="16.00" departLane="-38300048#1_0" departPos="5.10" departSpeed="0.00" departDelay="-0.62" arrival="204.00" arrivalLane="33538172#1_0" arrivalPos="1.82" arrivalSpeed="8.19" duration="188.00" routeLength="1746.79" waitingTime="50.00" waitingCount="2" stopTime="0.00" timeLoss="83.83" rerouteNo="1" devices="tripinfo_veh4 routing_veh4" vType="veh_passenger" speedFactor="1.08" vaporized=""/>
    <tripinfo id="veh12" depart="49.00" departLane="4769351#13_0" departPos="3.53" departSpeed="0.00" departDelay="-0.86" arrival="205.00" arrivalLane="40916607#0_0" arrivalPos="69.10" arrivalSpeed="14.62" duration="156.00" routeLength="1589.25" waitingTime="22.00" waitingCount="2" stopTime="0.00" timeLoss="60.21" rerouteNo="1" devices="tripinfo_veh12 routing_veh12" vType="veh_passenger" speedFactor="1.09" vaporized=""/>
    <tripinfo id="veh27" depart="178.00" departLane="544650154#1_1" departPos="0.20" departSpeed="0.00" departDelay="65.82" arrival="214.00" arrivalLane="4769208#3_2" arrivalPos="78.52" arrivalSpeed="17.42" duration="36.00" routeLength="529.11" waitingTime="0.00" waitingCount="0" stopTime="0.00" timeLoss="5.69" rerouteNo="1" devices="tripinfo_veh27 routing_veh27" vType="veh_passenger" speedFactor="1.01" vaporized=""/>
    <tripinfo id="veh14" depart="58.00" departLane="142725087#1_0" departPos="5.10" departSpeed="0.00" departDelay="-0.17" arrival="217.00" arrivalLane="38128384#2_0" arrivalPos="11.77" arrivalSpeed="9.67" duration="159.00" routeLength="1804.53" waitingTime="8.00" waitingCount="1" stopTime="0.00" timeLoss="37.39" rerouteNo="1" devices="tripinfo_veh14 routing_veh14" vType="veh_passenger" speedFactor="1.03" vaporized=""/>
    <tripinfo id="veh1" depart="4.00" departLane="-57190153_0" departPos="5.10" departSpeed="0.00" departDelay="-0.15" arrival="218.00" arrivalLane="-38300057#0_0" arrivalPos="98.62" arrivalSpeed="14.57" duration="214.00" routeLength="2359.91" waitingTime="17.00" waitingCount="2" stopTime="0.00" timeLoss="63.00" rerouteNo="1" devices="tripinfo_veh1 routing_veh1" vType="veh_passenger" speedFactor="1.06" vaporized=""/>
    <tripinfo id="veh7" depart="29.00" departLane="-38300053#1_0" departPos="5.10" departSpeed="0.00" departDelay="-0.08" arrival="218.00" arrivalLane="38128425#0_0" arrivalPos="110.85" arrivalSpeed="7.24" duration="189.00" routeLength="1168.33" waitingTime="51.00" waitingCount="2" stopTime="0.00" timeLoss="83.90" rerouteNo="1" devices="tripinfo_veh7 routing_veh7" vType="veh_passenger" speedFactor="0.83" vaporized=""/>
    <tripinfo id="veh23" depart="95.00" departLane="38128479_0" departPos="5.10" departSpeed="12.55" departDelay="-0.56" arrival="219.00" arrivalLane="38128438_0" arrivalPos="82.46" arrivalSpeed="12.60" duration="124.00" routeLength="1760.37" waitingTime="2.00" waitingCount="1" stopTime="0.00" timeLoss="18.46" rerouteNo="1" devices="tripinfo_veh23 routing_veh23" vType="veh_passenger" speedFactor="0.94" vaporized=""/>
    <tripinfo id="veh26" depart="108.00" departLane="38128386_0" departPos="3.89" departSpeed="0.00" departDelay="-0.02" arrival="219.00" arrivalLane="384392311#0_0" arrivalPos="0.20" arrivalSpeed="12.48" duration="111.00" routeLength="1308.20" waitingTime="5.00" waitingCount="1" stopTime="0.00" timeLoss="25.92" rerouteNo="1" devices="tripinfo_veh26 routing_veh26" vType="veh_passenger" speedFactor="1.02" vaporized=""/>
    <tripinfo id="veh9" depart="37.00" departLane="4769351#11_0" departPos="5.10" departSpeed="0.00" departDelay="-0.39" arrival="226.00" arrivalLane="384467498#0_0" arrivalPos="1.35" arrivalSpeed="11.27" duration="189.00" routeLength="2013.85" waitingTime="21.00" waitingCount="2" stopTime="0.00" timeLoss="47.59" rerouteNo="1" devices="tripinfo_veh9 routing_veh9" vType="veh_passenger" speedFactor="0.89" vaporized=""/>
    <tripinfo id="veh3" depart="12.00" departLane="6016588#1_0" departPos="5.10" departSpeed="0.00" departDelay="-0.46" arrival="227.00" arrivalLane="-23111989#1_0" arrivalPos="193.60" arrivalSpeed="12.64" duration="215.00" routeLength="2025.29" waitingTime="51.00" waitingCount="1" stopTime="0.00" timeLoss="77.76" rerouteNo="1" devices="tripinfo_veh3 routing_veh3" vType="veh_passenger" speedFactor="1.01" vaporized=""/>
    <tripinfo id="veh2" depart="8.00" departLane="38508055_0" departPos="5.10" departSpeed="0.00" departDelay="-0.31" arrival="237.00" arrivalLane="384392308#1_0" arrivalPos="29.53" arrivalSpeed="11.94" duration="229.00" routeLength="1974.88" waitingTime="55.00" waitingCount="2" stopTime="0.00" timeLoss="84.77" rerouteNo="1" devices="tripinfo_veh2 routing_veh2" vType="veh_passenger" speedFactor="0.94" vaporized=""/>
    <tripinfo id="veh46" depart="191.00" departLane="384392306#2_0" departPos="4.29" departSpeed="0.00" departDelay="-0.12" arrival="242.00" arrivalLane="37982501#4_0" arrivalPos="44.57" arrivalSpeed="14.12" duration="51.00" routeLength="545.35" waitingTime="0.00" waitingCount="0" stopTime="0.00" timeLoss="13.76" rerouteNo="1" devices="tripinfo_veh46 routing_veh46" vType="veh_passenger" speedFactor="1.10" vaporized=""/>
    <tripinfo id="veh44" depart="182.00" departLane="860370169_0" departPos="5.10" departSpeed="0.00" departDelay="-0.81" arrival="250.00" arrivalLane="54902503#2_0" arrivalPos="43.34" arrivalSpeed="12.84" duration="68.00" routeLength="697.24" waitingTime="0.00" waitingCount="0" stopTime="0.00" timeLoss="13.29" rerouteNo="1" devices="tripinfo_veh44 routing_veh44" vType="veh_passenger" speedFactor="0.97" vaporized=""/>
    <tripinfo id="veh48" depart="199.00" departLane="29719968#4_0" departPos="5.10" departSpeed="0.00" departDelay="-0.43" arrival="278.00" arrivalLane="-38128432#1_0" arrivalPos="150.70" arrivalSpeed="7.75" duration="79.00" routeLength="678.36" waitingTime="0.00" waitingCount="0" stopTime="0.00" timeLoss="13.13" rerouteNo="1" devices="tripinfo_veh48 routing_veh48" vType="veh_passenger" speedFactor="0.90" vaporized=""/>
    <tripinfo id="veh15" depart="62.00" departLane="534916576_0" departPos="5.10" departSpeed="0.00" departDelay="-0.32" arrival="282.00" arrivalLane="38128448_0" arrivalPos="106.07" arrivalSpeed="14.37" duration="220.00" routeLength="1812.17" waitingTime="63.00" waitingCount="1" stopTime="0.00" timeLoss="96.44" rerouteNo="1" devices="tripinfo_veh15 routing_veh15" vType="veh_passenger" speedFactor="1.05" vaporized=""/>
    <tripinfo id="veh10" depart="41.00" departLane="-8065814#8_0" departPos="5.10" departSpeed="0.00" departDelay="-0.55" arrival="287.00" arrivalLane="-38128420#1_0" arrivalPos="83.65" arrivalSpeed="7.50" duration="246.00" routeLength="1850.22" waitingTime="65.00" waitingCount="2" stopTime="0.00" timeLoss="96.36" rerouteNo="1" devices="tripinfo_veh10 routing_veh10" vType="veh_passenger" speedFactor="0.94" vaporized=""/>
    <tripinfo id="veh53" depart="220.00" departLane="-143317260#0_0" departPos="5.10" departSpeed="0.00" departDelay="-0.20" arrival="306.00" arrivalLane="694559943#2_0" arrivalPos="100.65" arrivalSpeed="5.69" duration="86.00" routeLength="648.46" waitingTime="0.00" waitingCount="0" stopTime="0.00" timeLoss="14.77" rerouteNo="1" devices="tripinfo_veh53 routing_veh53" vType="veh_passenger" speedFactor="1.09" vaporized=""/>
    <tripinfo id="veh17" depart="70.00" departLane="-384392312#1_1" departPos="5.10" departSpeed="0.00" departDelay="-0.63" arrival="314.00" arrivalLane="-686936940#3_0" arrivalPos="77.88" arrivalSpeed="12.28" duration="244.00" routeLength="2480.10" waitingTime="40.00" waitingCount="3" stopTime="0.00" timeLoss="83.11" rerouteNo="1" devices="tripinfo_veh17 routing_veh17" vType="veh_passenger" speedFactor="0.99" vaporized=""/>
    <tripinfo id="veh22" depart="91.00" departLane="-54902503#4_0" departPos="5.10" departSpeed="0.00" departDelay="-0.41" arrival="316.00" arrivalLane="744686036#0_0" arrivalPos="1.03" arrivalSpeed="3.44" duration="225.00" routeLength="2410.86" waitingTime="18.00" waitingCount="1" stopTime="0.00" timeLoss="46.23" rerouteNo="1" devices="tripinfo_veh22 routing_veh22" vType="veh_passenger" speedFactor="0.94" vaporized=""/>
    <tripinfo id="veh24" depart="99.00" departLane="-38128426#1_0" departPos="5.10" departSpeed="0.00" departDelay="-0.71" arrival="316.00" arrivalLane="142725087#2_0" arrivalPos="105.22" arrivalSpeed="15.48" duration="217.00" routeLength="2146.86" waitingTime="35.00" waitingCount="3" stopTime="0.00" timeLoss="84.76" rerouteNo="1" devices="tripinfo_veh24 routing_veh24" vType="veh_passenger" speedFactor="1.16" vaporized=""/>
    <tripinfo id="veh37" depart="153.00" departLane="150387778#1_1" departPos="4.30" departSpeed="0.00" departDelay="-0.73" arrival="317.00" arrivalLane="-38300052_0" arrivalPos="384.47" arrivalSpeed="15.53" duration="164.00" routeLength="1924.39" waitingTime="23.00" waitingCount="1" stopTime="0.00" timeLoss="58.28" rerouteNo="1" devices="tripinfo_veh37 routing_veh37" vType="veh_passenger" speedFactor="1.18" vaporized=""/>
    <tripinfo id="veh39" depart="162.00" departLane="-23298885#3_0" departPos="5.10" departSpeed="0.00" departDelay="-0.04" arrival="321.00" arrivalLane="-154946370#3_0" arrivalPos="17.62" arrivalSpeed="13.52" duration="159.00" routeLength="2102.09" waitingTime="2.00" waitingCount="1" stopTime="0.00" timeLoss="30.38" rerouteNo="1" devices="tripinfo_veh39 routing_veh39" vType="veh_passenger" speedFactor="1.01" vaporized=""/>
    <tripinfo id="veh41" depart="170.00" departLane="4769209#2_0" departPos="5.10" departSpeed="0.00" departDelay="-0.35" arrival="332.00" arrivalLane="154946368#1_0" arrivalPos="11.37" arrivalSpeed="11.92" duration="162.00" routeLength="1228.32" waitingTime="64.00" waitingCount="2" stopTime="0.00" timeLoss="98.94" rerouteNo="1" devices="tripinfo_veh41 routing_veh41" vType="veh_passenger" speedFactor="1.17" vaporized=""/>
    <tripinfo id="veh11" depart="45.00" departLane="54653897#0_2" departPos="5.10" departSpeed="0.00" departDelay="-0.70" arrival="343.00" arrivalLane="38128431#3_0" arrivalPos="77.32" arrivalSpeed="11.47" duration="298.00" routeLength="1929.56" waitingTime="101.00" waitingCount="4" stopTime="0.00" timeLoss="139.89" rerouteNo="1" devices="tripinfo_veh11 routing_veh11" vType="veh_passenger" speedFactor="0.86" vaporized=""/>
    <tripinfo id="veh35" depart="145.00" departLane="38128394#1_0" departPos="5.10" departSpeed="0.00" departDelay="-0.42" arrival="345.00" arrivalLane="-4769351#8_0" arrivalPos="5.76" arrivalSpeed="5.74" duration="200.00" routeLength="1516.59" waitingTime="65.00" waitingCount="1" stopTime="0.00" timeLoss="106.43" rerouteNo="1" devices="tripinfo_veh35 routing_veh35" vType="veh_passenger" speedFactor="1.13" vaporized=""/>
    <tripinfo id="veh16" depart="66.00" departLane="54729945#3_0" departPos="5.10" departSpeed="0.00" departDelay="-0.48" arrival="361.00" arrivalLane="38128408_0" arrivalPos="108.57" arrivalSpeed="9.90" duration="295.00" routeLength="2181.78" waitingTime="92.00" waitingCount="3" stopTime="0.00" timeLoss="140.59" rerouteNo="1" devices="tripinfo_veh16 routing_veh16" vType="veh_passenger" speedFactor="1.12" vaporized=""/>
    <tripinfo id="veh36" depart="149.00" departLane="38128421_0" departPos="5.10" departSpeed="0.00" departDelay="-0.57" arrival="361.00" arrivalLane="6016588#6_0" arrivalPos="409.58" arrivalSpeed="28.72" duration="212.00" routeLength="2163.29" waitingTime="56.00" waitingCount="1" stopTime="0.00" timeLoss="85.33" rerouteNo="1" devices="tripinfo_veh36 routing_veh36" vType="veh_passenger" speedFactor="0.93" vaporized=""/>
    <tripinfo id="veh28" depart="116.00" departLane="-384467501_0" departPos="5.10" departSpeed="0.00" departDelay="-0.33" arrival="366.00" arrivalLane="-154946360#3_0" arrivalPos="27.89" arrivalSpeed="11.22" duration="250.00" routeLength="2671.43" waitingTime="34.00" waitingCount="1" stopTime="0.00" timeLoss="71.19" rerouteNo="1" devices="tripinfo_veh28 routing_veh28" vType="veh_passenger" speedFactor="0.98" vaporized=""/>
    <tripinfo id="veh76" depart="315.00" departLane="154946368#4_0" departPos="5.10" departSpeed="0.00" departDelay="-0.76" arrival="376.00" arrivalLane="189952179#1_0" arrivalPos="7.21" arrivalSpeed="13.75" duration="61.00" routeLength="609.80" waitingTime="0.00" waitingCount="0" stopTime="0.00" timeLoss="15.71" rerouteNo="1" devices="tripinfo_veh76 routing_veh76" vType="veh_passenger" speedFactor="1.08" vaporized=""/>
    <tripinfo id="veh43" depart="178.00" departLane="943972926#2_0" departPos="5.10" departSpeed="0.00" departDelay="-0.66" arrival="377.00" arrivalLane="377158709_1" arrivalPos="34.28" arrivalSpeed="12.80" duration="199.00" routeLength="1285.36" waitingTime="68.00" waitingCount="3" stopTime="0.00" timeLoss="103.48" rerouteNo="1" devices="tripinfo_veh43 routing_veh43" vType="veh_passenger" speedFactor="1.02" vaporized=""/>
    <tripinfo id="veh33" depart="137.00" departLane="686936940#5_0" departPos="5.10" departSpeed="0.00" departDelay="-0.11" arrival="379.00" arrivalLane="179123126#2_0" arrivalPos="9.20" arrivalSpeed="9.67" duration="242.00" routeLength="2584.04" waitingTime="19.00" waitingCount="2" stopTime="0.00" timeLoss="55.16" rerouteNo="1" devices="tripinfo_veh33 routing_veh33" vType="veh_passenger" speedFactor="0.92" vaporized=""/>
    <tripinfo id="veh69" depart="286.00" departLane="54654007#2_1" departPos="0.20" departSpeed="0.00" departDelay="-0.68" arrival="385.00" arrivalLane="-179123122_0" arrivalPos="27.07" arrivalSpeed="11.30" duration="99.00" routeLength="1091.68" waitingTime="0.00" waitingCount="0" stopTime="0.00" timeLoss="16.77" rerouteNo="1" devices="tripinfo_veh69 routing_veh69" vType="veh_passenger" speedFactor="1.00" vaporized=""/>
    <tripinfo id="veh58" depart="240.00" departLane="443006431_0" departPos="5.10" departSpeed="0.00" departDelay="-0.98" arrival="388.00" arrivalLane="-38128386_0" arrivalPos="3.89" arrivalSpeed="3.98" duration="148.00" routeLength="1555.47" waitingTime="7.00" waitingCount="1" stopTime="0.00" timeLoss="39.79" rerouteNo="1" devices="tripinfo_veh58 routing_veh58" vType="veh_passenger" speedFactor="0.90" vaporized=""/>
    <tripinfo id="veh8" depart="33.00" departLane="4769351#3_0" departPos="5.10" departSpeed="0.00" departDelay="-0.24" arrival="389.00" arrivalLane="-142725085#4_0" arrivalPos="136.92" arrivalSpeed="12.93" duration="356.00" routeLength="3007.55" waitingTime="112.00" waitingCount="4" stopTime="0.00" timeLoss="167.62" rerouteNo="1" devices="tripinfo_veh8 routing_veh8" vType="veh_passenger" speedFactor="1.05" vaporized=""/>
    <tripinfo id="veh31" depart="128.00" departLane="560402070_0" departPos="5.10" departSpeed="0.00" departDelay="-0.80" arrival="389.00" arrivalLane="-744686036#6_0" arrivalPos="61.27" arrivalSpeed="10.64" duration="261.00" routeLength="1929.54" waitingTime="67.00" waitingCount="2" stopTime="0.00" timeLoss="97.57" rerouteNo="1" devices="tripinfo_veh31 routing_veh31" vType="veh_passenger" speedFactor="0.83" vaporized=""/>
    <tripinfo id="veh29" depart="120.00" departLane="-744686036#7_0" departPos="5.10" departSpeed="0.00" departDelay="-0.49" arrival="391.00" arrivalLane="-54902503#5_0" arrivalPos="42.78" arrivalSpeed="11.28" duration="271.00" routeLength="2197.97" waitingTime="66.00" waitingCount="1" stopTime="0.00" timeLoss="99.67" rerouteNo="1" devices="tripinfo_veh29 routing_veh29" vType="veh_passenger" speedFactor="0.89" vaporized=""/>
    <tripinfo id="veh59" depart="247.00" departLane="22880047#8_0" departPos="5.10" departSpeed="0.00" departDelay="1.87" arrival="397.00" arrivalLane="38128384#0_0" arrivalPos="26.90" arrivalSpeed="11.55" duration="150.00" routeLength="1099.59" waitingTime="39.00" waitingCount="2" stopTime="0.00" timeLoss="67.23" rerouteNo="1" devices="tripinfo_veh59 routing_veh59" vType="veh_passenger" speedFactor="0.88" vaporized=""/>
    <tripinfo id="veh65" depart="270.00" departLane="-38128383#9_0" departPos="5.10" departSpeed="0.00" departDelay="-0.06" arrival="406.00" arrivalLane="-384392308#0_0" arrivalPos="31.07" arrivalSpeed="10.10" duration="136.00" routeLength="1298.84" waitingTime="37.00" waitingCount="3" stopTime="0.00" timeLoss="63.39" rerouteNo="1" devices="tripinfo_veh65 routing_veh65" vType="veh_passenger" speedFactor="1.17" vaporized=""/>
    <tripinfo id="veh34" depart="141.00" departLane="-54902503#0_0" departPos="5.10" departSpeed="0.00" departDelay="-0.26" arrival="407.00" arrivalLane="-40916616#1_0" arrivalPos="90.60" arrivalSpeed="13.07" duration="266.00" routeLength="1848.16" waitingTime="88.00" waitingCount="4" stopTime="0.00" timeLoss="136.64" rerouteNo="1" devices="tripinfo_veh34 routing_veh34" vType="veh_passenger" speedFactor="0.95" vaporized=""/>
    <tripinfo id="veh81" depart="336.00" departLane="154946368#1_0" departPos="5.10" departSpeed="0.00" departDelay="-0.54" arrival="408.00" arrivalLane="-57400726#0_0" arrivalPos="221.45" arrivalSpeed="11.30" duration="72.00" routeLength="539.37" waitingTime="8.00" waitingCount="2" stopTime="0.00" timeLoss="27.79" rerouteNo="1" devices="tripinfo_veh81 routing_veh81" vType="veh_passenger" speedFactor="0.88" vaporized=""/>
    <tripinfo id="veh83" depart="344.00" departLane="179123105#1_0" departPos="5.10" departSpeed="0.00" departDelay="-0.85" arrival="408.00" arrivalLane="54902503#2_0" arrivalPos="43.34" arrivalSpeed="12.26" duration="64.00" routeLength="604.41" waitingTime="0.00" waitingCount="0" stopTime="0.00" timeLoss="12.83" rerouteNo="1" devices="tripinfo_veh83 routing_veh83" vType="veh_passenger" speedFactor="0.91" vaporized=""/>
    <tripinfo id="veh18" depart="74.00" departLane="-179123127#2_0" departPos="5.10" departSpeed="0.00" departDelay="-0.79" arrival="425.00" arrivalLane="-384467503#2_0" arrivalPos="10.92" arrivalSpeed="12.38" duration="351.00" routeLength="2542.88" waitingTime="117.00" waitingCount="5" stopTime="0.00" timeLoss="173.78" rerouteNo="1" devices="tripinfo_veh18 routing_veh18" vType="veh_passenger" speedFactor="0.93" vaporized=""/>
    <tripinfo id="veh38" depart="157.00" departLane="96783559_0" departPos="5.10" departSpeed="0.00" departDelay="-0.88" arrival="431.00" arrivalLane="33857819#4_0" arrivalPos="14.28" arrivalSpeed="14.94" duration="274.00" routeLength="2906.97" waitingTime="67.00" waitingCount="2" stopTime="0.00" timeLoss="107.30" rerouteNo="1" devices="tripinfo_veh38 routing_veh38" vType="veh_passenger" speedFactor="1.15" vaporized=""/>
    <tripinfo id="veh54" depart="224.00" departLane="57190131_0" departPos="5.10" departSpeed="0.00" departDelay="-0.36" arrival="450.00" arrivalLane="544650154#0_0" arrivalPos="21.02" arrivalSpeed="4.84" duration="226.00" routeLength="1889.01" waitingTime="55.00" waitingCount="4" stopTime="0.00" timeLoss="100.93" rerouteNo="1" devices="tripinfo_veh54 routing_veh54" vType="veh_passenger" speedFactor="1.04" vaporized=""/>
    <tripinfo id="veh49" depart="203.00" departLane="686936940#3_0" departPos="5.10" departSpeed="0.00" departDelay="-0.58" arrival="452.00" arrivalLane="57190149_0" arrivalPos="160.09" arrivalSpeed="13.28" duration="249.00" routeLength="2690.21" waitingTime="39.00" waitingCount="1" stopTime="0.00" timeLoss="76.55" rerouteNo="1" devices="tripinfo_veh49 routing_veh49" vType="veh_passenger" speedFactor="1.03" vaporized=""/>
    <tripinfo id="veh64" depart="265.00" departLane="179058359#2_0" departPos="0.20" departSpeed="0.00" departDelay="-0.91" arrival="457.00" arrivalLane="352764035#1_2" arrivalPos="74.29" arrivalSpeed="14.66" duration="192.00" routeLength="1601.25" waitingTime="43.00" waitingCount="3" stopTime="0.00" timeLoss="75.21" rerouteNo="1" devices="tripinfo_veh64 routing_veh64" vType="veh_passenger" speedFactor="0.85" vaporized=""/>
    <tripinfo id="veh66" depart="274.00" departLane="-8065814#5_0" departPos="5.10" departSpeed="0.00" departDelay="-0.22" arrival="458.00" arrivalLane="38128424_0" arrivalPos="44.07" arrivalSpeed="13.29" duration="184.00" routeLength="1814.47" waitingTime="22.00" waitingCount="3" stopTime="0.00" timeLoss="61.14" rerouteNo="1" devices="tripinfo_veh66 routing_veh66" vType="veh_passenger" speedFactor="1.02" vaporized=""/>
    <tripinfo id="veh92" depart="382.00" departLane="179123124#2_0" departPos="5.10" departSpeed="0.00" departDelay="-0.24" arrival="460.00" arrivalLane="154946368#3_0" arrivalPos="14.57" arrivalSpeed="13.44" duration="78.00" routeLength="826.30" waitingTime="0.00" waitingCount="0" stopTime="0.00" timeLoss="13.04" rerouteNo="1" devices="tripinfo_veh92 routing_veh92" vType="veh_passenger" speedFactor="0.98" vaporized=""/>
    <tripinfo id="veh55" depart="228.00" departLane="57190131_0" departPos="5.10" departSpeed="0.00" departDelay="-0.51" arrival="463.00" arrivalLane="8065751#1_0" arrivalPos="54.60" arrivalSpeed="18.07" duration="235.00" routeLength="2036.08" waitingTime="44.00" waitingCount="4" stopTime="0.00" timeLoss="102.27" rerouteNo="1" devices="tripinfo_veh55 routing_veh55" vType="veh_passenger" speedFactor="1.04" vaporized=""/>
    <tripinfo id="veh91" depart="378.00" departLane="-54902503#1_0" departPos="5.10" departSpeed="0.00" departDelay="-0.09" arrival="463.00" arrivalLane="4769209#2_2" arrivalPos="34.61" arrivalSpeed="16.37" duration="85.00" routeLength="993.48" waitingTime="0.00" waitingCount="0" stopTime="0.00" timeLoss="13.19" rerouteNo="1" devices="tripinfo_veh91 routing_veh91" vType="veh_passenger" speedFactor="0.96" vaporized=""/>
    <tripinfo id="veh67" depart="278.00" departLane="-384467502#2_0" departPos="5.10" departSpeed="0.00" departDelay="-0.37" arrival="469.00" arrivalLane="-38300053#1_0" arrivalPos="60.78" arrivalSpeed="14.42" duration="191.00" routeLength="1686.94" waitingTime="43.00" waitingCount="4" stopTime="0.00" timeLoss="92.57" rerouteNo="1" devices="tripinfo_veh67 routing_veh67" vType="veh_passenger" speedFactor="1.10" vaporized=""/>
    <tripinfo id="veh72" depart="299.00" departLane="734423218_0" departPos="5.10" departSpeed="0.00" departDelay="-0.14" arrival="474.00" arrivalLane="38128401#1_0" arrivalPos="41.41" arrivalSpeed="12.34" duration="175.00" routeLength="2588.77" waitingTime="2.00" waitingCount="1" stopTime="0.00" timeLoss="36.53" rerouteNo="1" devices="tripinfo_veh72 routing_veh72" vType="veh_passenger" speedFactor="0.90" vaporized=""/>
    <tripinfo id="veh103" depart="427.00" departLane="-38508056_0" departPos="5.10" departSpeed="0.00" departDelay="-0.94" arrival="474.00" arrivalLane="-38128383#6_0" arrivalPos="57.90" arrivalSpeed="12.46" duration="47.00" routeLength="508.83" waitingTime="0.00" waitingCount="0" stopTime="0.00" timeLoss="7.69" rerouteNo="1" devices="tripinfo_veh103 routing_veh103" vType="veh_passenger" speedFactor="0.98" vaporized=""/>
    <tripinfo id="veh45" depart="186.00" departLane="-142725088#1_0" departPos="5.10" departSpeed="0.00" departDelay="-0.97" arrival="482.00" arrivalLane="384467504#1_0" arrivalPos="6.48" arrivalSpeed="14.54" duration="296.00" routeLength="2585.27" waitingTime="71.00" waitingCount="3" stopTime="0.00" timeLoss="136.36" rerouteNo="1" devices="tripinfo_veh45 routing_veh45" vType="veh_passenger" speedFactor="1.18" vaporized=""/>
    <tripinfo id="veh52" depart="216.00" departLane="-1009769903_0" departPos="5.10" departSpeed="0.00" departDelay="-0.05" arrival="485.00" arrivalLane="-8065751#5_0" arrivalPos="47.83" arrivalSpeed="15.18" duration="269.00" routeLength="2169.25" waitingTime="65.00" waitingCount="3" stopTime="0.00" timeLoss="118.32" rerouteNo="1" devices="tripinfo_veh52 routing_veh52" vType="veh_passenger" speedFactor="0.96" vaporized=""/>
    <tripinfo id="veh78" depart="324.00" departLane="150387788#0_1" departPos="0.15" departSpeed="0.00" departDelay="-0.07" arrival="487.00" arrivalLane="-8065814#7_0" arrivalPos="42.52" arrivalSpeed="13.47" duration="163.00" routeLength="1532.62" waitingTime="26.00" waitingCount="2" stopTime="0.00" timeLoss="61.66" rerouteNo="1" devices="tripinfo_veh78 routing_veh78" vType="veh_passenger" speedFactor="1.02" vaporized=""/>
    <tripinfo id="veh70" depart="290.00" departLane="-39428037#3_0" departPos="3.56" departSpeed="0.00" departDelay="-0.84" arrival="496.00" arrivalLane="384392306#2_0" arrivalPos="4.29" arrivalSpeed="14.03" duration="206.00" routeLength="1974.29" waitingTime="49.00" waitingCount="2" stopTime="0.00" timeLoss="81.11" rerouteNo="1" devices="tripinfo_veh70 routing_veh70" vType="veh_passenger" speedFactor="1.00" vaporized=""/>
    <tripinfo id="veh97" depart="403.00" departLane="38128382_1" departPos="5.10" departSpeed="0.00" departDelay="-0.01" arrival="503.00" arrivalLane="4326327#0_2" arrivalPos="3.49" arrivalSpeed="8.55" duration="100.00" routeLength="754.40" waitingTime="37.00" waitingCount="1" stopTime="0.00" timeLoss="58.50" rerouteNo="1" devices="tripinfo_veh97 routing_veh97" vType="veh_passenger" speedFactor="1.09" vaporized=""/>
    <tripinfo id="veh74" depart="307.00" departLane="4769351#13_0" departPos="3.53" departSpeed="0.00" departDelay="-0.45" arrival="504.00" arrivalLane="-38128448_0" arrivalPos="106.07" arrivalSpeed="13.87" duration="197.00" routeLength="2060.84" waitingTime="20.00" waitingCount="2" stopTime="0.00" timeLoss="55.92" rerouteNo="1" devices="tripinfo_veh74 routing_veh74" vType="veh_passenger" speedFactor="1.02" vaporized=""/>
    <tripinfo id="veh73" depart="303.00" departLane="22880047#2_0" departPos="5.10" departSpeed="0.00" departDelay="-0.30" arrival="511.00" arrivalLane="4769209#3_0" arrivalPos="252.81" arrivalSpeed="19.33" duration="208.00" routeLength="1501.93" waitingTime="83.00" waitingCount="2" stopTime="0.00" timeLoss="119.34" rerouteNo="1" devices="tripinfo_veh73 routing_veh73" vType="veh_passenger" speedFactor="1.14" vaporized=""/>
    <tripinfo id="veh84" depart="349.00" departLane="38128384#0_0" departPos="5.10" departSpeed="0.00" departDelay="0.00" arrival="515.00" arrivalLane="-154946371#1_0" arrivalPos="13.17" arrivalSpeed="12.10" duration="166.00" routeLength="1441.57" waitingTime="45.00" waitingCount="1" stopTime="0.00" timeLoss="72.76" rerouteNo="1" devices="tripinfo_veh84 routing_veh84" vType="veh_passenger" speedFactor="1.04" vaporized=""/>
    <tripinfo id="veh75" depart="311.00" departLane="-26442127#4_0" departPos="5.10" departSpeed="0.00" departDelay="-0.61" arrival="520.00" arrivalLane="154946371#0_0" arrivalPos="65.64" arrivalSpeed="13.34" duration="209.00" routeLength="2254.37" waitingTime="24.00" waitingCount="1" stopTime="0.00" timeLoss="60.56" rerouteNo="1" devices="tripinfo_veh75 routing_veh75" vType="veh_passenger" speedFactor="0.97" vaporized=""/>
    <tripinfo id="veh32" depart="132.00" departLane="38128483#0_0" departPos="5.10" departSpeed="27.30" departDelay="-0.95" arrival="521.00" arrivalLane="143317265_0" arrivalPos="64.17" arrivalSpeed="11.35" duration="389.00" routeLength="3510.21" waitingTime="121.00" waitingCount="5" stopTime="0.00" timeLoss="166.91" rerouteNo="1" devices="tripinfo_veh32 routing_veh32" vType="veh_passenger" speedFactor="0.87" vaporized=""/>
    <tripinfo id="veh57" depart="236.00" departLane="-179123119#0_0" departPos="5.10" departSpeed="0.00" departDelay="-0.82" arrival="538.00" arrivalLane="457725786#0_0" arrivalPos="107.59" arrivalSpeed="8.83" duration="302.00" routeLength="2668.30" waitingTime="51.00" waitingCount="3" stopTime="0.00" timeLoss="93.78" rerouteNo="1" devices="tripinfo_veh57 routing_veh57" vType="veh_passenger" speedFactor="1.00" vaporized=""/>